22
 energy: -32.972882537802 gnorm: 0.003781289869 xtb: 6.7.1 (edcfbbe)
H            1.94595902138460        1.12195236579885        0.26589101480191
C            1.99779564603033        2.19854562128668        0.12239236476163
H            1.45784868651519        2.69340252189661        0.92718865603111
H            1.53241296322578        2.46412798917675       -0.82434110828942
C            3.44823185240173        2.63470533309062        0.14101498883400
O            4.37306211633997        1.89427105091349        0.40614812511136
N            3.62571896989881        3.94083746901316       -0.15866988061257
H            2.84778834213116        4.55460898498624       -0.36600203521034
C            4.92030523683793        4.57743636417788       -0.15968483897412
H            5.47270105780239        4.25266930812148        0.73157440873512
C            5.72158915411085        4.19279086511271       -1.41103225081651
H            5.20469831579072        4.53141976106752       -2.30593853327990
H            6.71692977051785        4.62842434284814       -1.38914155237790
H            5.81343804394943        3.11031493097044       -1.44272193426508
C            4.68116985506710        6.08796735528378       -0.12358080840052
O            3.58531541290478        6.56988432173993       -0.32712893743043
N            5.78191430621970        6.81831436441989        0.13389809915694
H            6.66388494884434        6.35848664275746        0.29266851840600
C            5.77372601326914        8.26210467995971        0.14182215380549
H            4.74073574084578        8.58462743322419        0.01998508992792
H            6.16506949893044        8.64202179555561        1.08678179287143
H            6.37370504698177        8.65908649859886       -0.68112333278610
22
 energy: -32.953771548522 gnorm: 0.050862069245 xtb: 6.7.1 (edcfbbe)
H            1.75427857977324        1.23110055749998        0.02319053002446
C            1.96751543318497        2.29236296932253        0.12606933188772
H            1.67487595429128        2.70915759320389        1.08771765590918
H            1.31283147608453        2.80104393061567       -0.57824016671704
C            3.45109454974418        2.58550165076745        0.03998856412983
O            4.34512128284363        1.85288743165220        0.41125941443245
N            3.63978191470100        3.89827265538277       -0.22139830684778
H            2.86896084789639        4.49872123751982       -0.48630296634237
C            4.93354657849833        4.53023613854485       -0.13191202395745
H            5.49665490539748        4.26959018189325        0.77358808309251
C            5.74855142852330        4.30753314735710       -1.41333653566639
H            5.07958953578340        3.94951455890929       -2.19244857708479
H            6.18156504436710        5.24071583013856       -1.76351925130806
H            6.54858451628350        3.58277867816620       -1.28735006206473
C            4.66445956045948        6.03229112162789       -0.02413483006613
O            3.59979751445083        6.54889626199243       -0.29650682738384
N            5.71693252947192        6.77449297737422        0.36673267013975
H            6.58578957349591        6.39466409063819        0.70634891440871
C            5.75227188922310        8.18357098087420        0.05382604441422
H            4.74343629080775        8.49698408966523       -0.21066788905556
H            6.34106873403563        8.68345746469279        0.82445385354794
H            6.33077392409534        8.27172211186831       -0.86941468141259
22
 energy: -32.949074055351 gnorm: 0.053811837078 xtb: 6.7.1 (edcfbbe)
H            1.95021733553496        1.28049166982363       -0.18862260507611
C            1.89456316040422        2.28491958150008        0.22412325123386
H            1.32902531537297        2.34811664397003        1.15164482232144
H            1.29214046892053        2.87838859515905       -0.46020179620080
C            3.36617307379971        2.64185787484372        0.18797427197438
O            4.23611301290104        1.80989880652897        0.34576604182524
N            3.65592641101191        3.88214267476271       -0.26482882663546
H            2.90191519806303        4.54950934038531       -0.36955254112346
C            4.95061119336163        4.51039379823954       -0.16331626510844
H            5.53250807930787        4.17619735648176        0.70539926741162
C            5.82551606929384        4.43768481848032       -1.42233707908512
H            5.49702198014372        3.58553685169276       -2.01279319587185
H            5.69650130985367        5.31575622594442       -2.04947701403872
H            6.87356633085118        4.35337034388476       -1.14724373148815
C            4.67832483653270        6.00809907177876       -0.01188196529516
O            3.59843264625748        6.45311217674409       -0.34410036139165
N            5.70833374257648        6.77995784533225        0.38138171105002
H            6.61323059347793        6.40283663113187        0.61260265104100
C            5.80085997872479        8.18119556496700        0.04577459736522
H            4.82135302651795        8.54846157022329       -0.25690663789782
H            6.41277778215371        8.64569511519502        0.82052116528248
H            6.41738258267408        8.23918579828086       -0.85497270700146
22
 energy: -32.959207386600 gnorm: 0.047671555058 xtb: 6.7.1 (edcfbbe)
H            1.69774130907042        1.33100632131596       -0.32258502182996
C            1.92137852238142        2.31571710307864        0.08072997382010
H            1.75957539578035        2.28094833601681        1.15624566783255
H            1.30013476373647        3.10845971985873       -0.33040822038850
C            3.41261504803286        2.58074344266081        0.06278970945714
O            4.29650256175650        1.86250992122719        0.48318584859095
N            3.61548503864811        3.87791661711104       -0.25889220346144
H            2.82858966660009        4.44087964172990       -0.55679554959119
C            4.88390386054264        4.55343553994045       -0.13239902867840
H            5.45268109220616        4.17082186874812        0.72495561873376
C            5.72603476863239        4.34562920220071       -1.39869693333659
H            5.97700318186266        3.28747098080126       -1.39434511775664
H            5.16061919186410        4.58050867464278       -2.29652515075845
H            6.58620820330016        5.00419666709037       -1.31160423090126
C            4.66825658926082        6.06423136748998       -0.02663912699054
O            3.60012438990114        6.57441391269121       -0.29752661830342
N            5.82847558636114        6.71601740807522        0.17437628754786
H            6.69092677151422        6.28255582365705        0.46214486274999
C            5.84912365346430        8.15835449774399        0.11194531351029
H            4.80744088345911        8.42825612594067       -0.05533948256653
H            6.25366920145430        8.55579042624453        1.04405207946631
H            6.46000371475223        8.53396523142677       -0.71300970880909
22
 energy: -32.955943651896 gnorm: 0.056988216591 xtb: 6.7.1 (edcfbbe)
H            1.98028023483346        1.26776416837204       -0.38609299606510
C            1.90691298581351        2.25392041877551        0.06606300599320
H            1.63516797724707        1.98931960615674        1.08599644565683
H            1.16909779318927        2.92011387616786       -0.37579030930567
C            3.34506768033417        2.72463870938519        0.13301636437264
O            4.24691998605262        1.99389915724783        0.48872934266198
N            3.59972284693424        3.99884291667647       -0.23960726247139
H            2.82239820563537        4.60964420894673       -0.45770449241764
C            4.91657440118939        4.58646901974214       -0.28215707345700
H            5.48522145728871        4.26568474230123        0.60028039356436
C            5.73655812476934        4.03505896486189       -1.45665791220106
H            6.45954876360272        3.32494784514364       -1.06203190143749
H            5.14378948236739        3.51059060118257       -2.20131688195596
H            6.24057870736166        4.86159600751527       -1.95061581092511
C            4.70246330719674        6.09546988417825       -0.15075628237496
O            3.58248609973039        6.56239433738486       -0.19771905305045
N            5.81425963057397        6.80465313863786        0.11814649894970
H            6.73203399742258        6.39002436486495        0.10096963527664
C            5.89570047716204        8.23773871308372        0.27401033235739
H            4.88133575522128        8.62208911697740        0.17771340250789
H            6.08618416702208        8.51698212617215        1.31139867009391
H            6.58679781695441        8.76949795120993       -0.38509913412029
22
 energy: -32.950954013836 gnorm: 0.055044965798 xtb: 6.7.1 (edcfbbe)
H            2.01492848267680        1.37716218769408       -0.54826663068715
C            1.96329100120516        2.26590854113233        0.07606936921719
H            1.41238683497312        1.95266658600813        0.96066376291277
H            1.38631791326450        3.00893660002890       -0.47021872445530
C            3.38489785494409        2.77115389295788        0.21063700022392
O            4.36513709579227        2.12818318572886        0.52618299951175
N            3.57260952323621        3.99034411553696       -0.34220426991050
H            2.81123203022632        4.65705284649971       -0.31608949286578
C            4.87904411431436        4.58925899960641       -0.21673506904834
H            5.35384230846192        4.22966744428763        0.70533786639025
C            5.69065199384958        3.99888998404196       -1.37804278997662
H            6.70441719254750        3.66519412149243       -1.16916447064382
H            5.15175488896577        3.12275467064667       -1.72866440953730
H            5.68758846738318        4.72203997011405       -2.18936229670514
C            4.70205364918154        6.10869510754389       -0.20325893303390
O            3.62648565852847        6.67108624628776       -0.24124038468973
N            5.86953742130183        6.77427476409557       -0.13027950429063
H            6.72876071745107        6.25416063149502       -0.05452687061428
C            5.85451877401423        8.12761289755796        0.37262279612738
H            4.81831400400301        8.45617791800168        0.30736318682881
H            5.95867471696659        8.12634180907918        1.45870999354166
H            6.53328754528528        8.85588900033124       -0.07870366897116
22
 energy: -32.956912910904 gnorm: 0.052608292956 xtb: 6.7.1 (edcfbbe)
H            1.75041578239867        1.28183326123690       -0.59360388199833
C            1.93585722156683        2.16353715539260        0.01511747123648
H            1.62747506849596        1.94732411391871        1.03603643566702
H            1.21587320571940        2.86993005686978       -0.39237660125927
C            3.33666448022159        2.72867548631921        0.12783432580585
O            4.19179262142240        2.05572725352859        0.66611505361612
N            3.56335360888326        4.03073882139867       -0.15595626810752
H            2.85460715850831        4.53145212375951       -0.67734180414932
C            4.88630718216630        4.59885754003260       -0.24677423794167
H            5.45887279108953        4.24108516082612        0.61874610175009
C            5.72727129654233        4.13654581786652       -1.44465811825892
H            6.73494822468937        4.54517216934362       -1.42691919701046
H            5.88519784543221        3.06136355235043       -1.44365459681813
H            5.26922997552334        4.46064752201156       -2.37543782773099
C            4.70755470356438        6.11799078967762       -0.22497911951847
O            3.62180546268612        6.65647192387278       -0.30087069654772
N            5.86816774433574        6.78751360397611       -0.09826211501796
H            6.68499869599991        6.19877753726645       -0.07182578237198
C            5.90615939436623        8.13064336946866        0.43015008355723
H            4.92089849042495        8.57530973899007        0.29798773261194
H            6.17563100539660        8.06823021328150        1.48557659606474
H            6.65649770063741        8.76314736683808       -0.05124353805367
22
 energy: -32.957258866115 gnorm: 0.055291358474 xtb: 6.7.1 (edcfbbe)
H            1.87632099669997        1.47517616417004       -0.68854837067024
C            1.92734841511421        2.27279072491743        0.04870271849349
H            1.50767940567760        1.92588800467779        0.99085959866059
H            1.31177723129176        3.08263561212873       -0.33683936572770
C            3.36646050549918        2.71904450695077        0.20414183124246
O            4.17084252693913        1.99958644811735        0.76019871501352
N            3.58935648592167        3.90941924214735       -0.39637406246425
H            2.77163347747445        4.44264190414739       -0.66448017237616
C            4.87395032885576        4.56088196975190       -0.31496219941461
H            5.25732250753662        4.13799970387832        0.62267006604574
C            5.74460844377453        4.22584322425128       -1.53380674278884
H            6.29439919766251        5.08980469905467       -1.89987182715116
H            6.47977578736748        3.44137158963798       -1.37540240747411
H            5.01766525511077        3.95608409011636       -2.29536976229276
C            4.70287467940798        6.07268099918896       -0.15561942601235
O            3.61678182792206        6.58730780446666       -0.32921218912989
N            5.80733798832992        6.73975015401073        0.22716012234420
H            6.58613234955489        6.11153167310824        0.34267083757869
C            5.96071270844318        8.16524174727724        0.39777756655805
H            5.03076484907282        8.66227611554910        0.12558657298819
H            6.41045299473217        8.33943887699301        1.37646266092494
H            6.68793861635663        8.55162397026455       -0.32101305396762
22
 energy: -32.954322764974 gnorm: 0.049990308780 xtb: 6.7.1 (edcfbbe)
H            1.95773784948874        1.57122528155819       -0.68673727012351
C            1.88731084011525        2.34774709188311        0.07114519629101
H            1.49655121663249        1.87432412525301        0.96964434928086
H            1.26933485711083        3.19982431591957       -0.20360809533657
C            3.32726076704642        2.79169082534761        0.22543504298677
O            4.16274876279851        2.08688014977208        0.75368797988828
N            3.61443112466975        3.93985280684348       -0.42767366422065
H            2.93962122016400        4.55382855164543       -0.86647142524389
C            4.94091430132488        4.49680427272827       -0.32062175703386
H            5.34687608791613        4.03277449556948        0.58757929564704
C            5.74364170027155        4.37297258686437       -1.62299372709620
H            5.76971473400863        5.29990892970310       -2.19115929127257
H            6.76567023282263        4.03104536603261       -1.48334381634308
H            5.14248189458567        3.65465893980534       -2.17419874864936
C            4.74033395307564        5.98939222851864       -0.05202976157066
O            3.70634502475860        6.54100129143005       -0.37009736094283
N            5.78093778421093        6.61659152024946        0.52685284980067
H            6.54097864850294        6.01586937359681        0.80252028804131
C            5.90732074369119        8.03588231185693        0.29382656493210
H            4.91614868612384        8.34642145707883       -0.03340038505377
H            6.35037455731562        8.52233658599858        1.16417189717036
H            6.50274539918395        8.22093869276073       -0.60396643995898
22
 energy: -32.953613344611 gnorm: 0.056657664735 xtb: 6.7.1 (edcfbbe)
H            1.55395946670801        1.53504162596777       -0.70122687921599
C            1.80935300875508        2.29841683933666        0.02977544650270
H            1.57812517241464        1.81963270519735        0.97920822862364
H            1.29028812452482        3.25387438404588       -0.00326783304272
C            3.26537862694552        2.69669927993168        0.15510671451074
O            4.05135176642133        2.10685501941994        0.86797388379791
N            3.63177112742699        3.88388479906487       -0.37747295659812
H            3.03383671522477        4.54580150151082       -0.85624111881995
C            4.96212926954908        4.44010838382330       -0.33302641013801
H            5.51863816481593        3.95064076844119        0.47671257822825
C            5.70257730100338        4.46213433537998       -1.67732180568971
H            5.26013309927713        5.13422340903505       -2.40892440147993
H            6.70651917569652        4.82625068860441       -1.47612863829632
H            5.74295930107541        3.45977452478169       -2.09545902595003
C            4.82231199747566        5.94391514560404       -0.08969604972605
O            3.80148057979970        6.49336688214635       -0.45105304432066
N            5.79506547019402        6.62852330977865        0.53990937051161
H            6.64641171981203        6.18765633738928        0.84872602306733
C            5.92252132895026        8.04780297180167        0.30739993979009
H            4.96265540774793        8.50856685870310        0.07873386228948
H            6.28370304590713        8.49974262206111        1.23245874742042
H            6.56355978844762        8.30341265980266       -0.54026867565687
22
 energy: -32.952728572878 gnorm: 0.062697047864 xtb: 6.7.1 (edcfbbe)
H            1.92561961632626        1.97108949329007       -0.85952017078382
C            1.83643894647013        2.45150270090576        0.11186125640695
H            1.42694805225301        1.72494431366891        0.81082708412455
H            1.26959575196103        3.37902009878132        0.06920513421812
C            3.30393749535280        2.75888751115979        0.32705826564869
O            4.08753053213867        2.03508125587038        0.90665802527953
N            3.69471720580801        3.77092754216365       -0.47939067695619
H            3.01823106844290        4.40767717297152       -0.88162755660435
C            4.93794115072623        4.48743840019408       -0.33033018616817
H            5.50253591446150        4.11015943182078        0.53213781967740
C            5.67912412340216        4.36816056595778       -1.66909786853041
H            5.02741118060838        4.33223656521450       -2.53897291633911
H            6.28661654772822        5.25703868919254       -1.81677076075054
H            6.30330475118055        3.47878422558625       -1.64454493460650
C            4.71867395715445        5.99676548876256       -0.21181218884384
O            3.70493889787470        6.60636630364894       -0.48622190573632
N            5.82761276720172        6.57785854596901        0.28207635480079
H            6.60951777901727        6.04146072948632        0.62181694048776
C            5.95093110970042        8.00786639665418        0.43869805062034
H            4.99871736736904        8.53196379284640        0.37128157407252
H            6.16077319058535        8.16222222078899        1.49821492997423
H            6.69040164387662        8.49095654078401       -0.20520869137403
22
 energy: -32.957084224062 gnorm: 0.049668090515 xtb: 6.7.1 (edcfbbe)
H            1.64453488128010        2.18474819000105       -0.91126272768270
C            1.86222040988309        2.41647289571361        0.12856832793728
H            1.75329288414090        1.52382574488572        0.74129911263534
H            1.24055996875571        3.26470912811435        0.40687195873024
C            3.30483405772069        2.86111749931126        0.25308500396237
O            4.05570890345340        2.21586769445888        0.95571523611457
N            3.64094602978689        3.94573229129745       -0.48035446641501
H            2.97680652848312        4.45674745114985       -1.04838654106707
C            4.96281264246872        4.52349515038691       -0.47188985332553
H            5.50021567564456        4.14768510031688        0.40840708039432
C            5.74298538281982        4.13186610091696       -1.73436192257652
H            5.19914104921437        3.50867807344304       -2.44045892521509
H            6.02132207436185        5.01969255686726       -2.29583460221851
H            6.60467324920576        3.57427667362802       -1.37689489305251
C            4.74724370507490        6.02603948673002       -0.28193235119767
O            3.64916120089730        6.52681377579809       -0.41614416054582
N            5.83623611300744        6.64487388130530        0.21049040488496
H            6.69846146193522        6.12742051397481        0.15277292931502
C            5.92429780125876        8.01881541170784        0.64545041854972
H            4.98080466574759        8.55026775658891        0.53006744061870
H            5.99114157222880        7.98603539814301        1.73397825874053
H            6.76483958165717        8.57046323504066        0.21651813799667
22
 energy: -32.956057123366 gnorm: 0.045853903780 xtb: 6.7.1 (edcfbbe)
H            1.42138157335210        2.36180775420523       -0.86937977666097
C            1.88728715136854        2.42586315136195        0.11100834010630
H            1.88155127112494        1.46015720205183        0.61250836901999
H            1.33369442520478        3.16091369952413        0.69122821685121
C            3.31180979424437        2.93510181370003        0.18689375914931
O            4.11337731089013        2.47991852009630        0.97692367973864
N            3.57157007695194        3.96670380738209       -0.64714213905239
H            2.83480359077866        4.61242674436625       -0.90227984042928
C            4.91000322816527        4.49175646102221       -0.52827526194914
H            5.32749937307115        4.00030156378188        0.36005292395507
C            5.76868951115191        4.04817888814398       -1.72065748465890
H            5.43134403885815        3.06251988527489       -2.03271086712693
H            5.62702888260854        4.77671337265877       -2.51446380450797
H            6.78791748580850        3.95628802602574       -1.35469978709699
C            4.83690483921203        5.99512494947131       -0.25490161476933
O            3.75782321178478        6.54638182872916       -0.33409494285571
N            5.96554682665594        6.65369310891481        0.06727208856190
H            6.75537865204668        6.04415581783162        0.20566220336513
C            5.79391095309969        7.93224570286574        0.71573548782931
H            4.81787993535466        8.32306957274748        0.43191464304318
H            5.80589623173230        7.72210354126422        1.78631108054444
H            6.58371072417552        8.64434988015342        0.46288639540616
22
 energy: -32.955774647498 gnorm: 0.058917275672 xtb: 6.7.1 (edcfbbe)
H            1.41537072409982        2.68395831844029       -0.81347206851411
C            1.79404160631958        2.56330525857654        0.19864608713386
H            1.79852904292286        1.48723945492740        0.36046514928177
H            1.02998942759225        2.93499855888071        0.87797494257127
C            3.25016219457444        2.96535138995589        0.31008720180654
O            4.09763961915278        2.40073935215068        0.97102959902464
N            3.65424936635498        3.85409152285717       -0.62487188640996
H            2.94684605797032        4.37138688087670       -1.13168968600185
C            4.95434001407816        4.47642191407146       -0.56419146291006
H            5.48512670626769        4.02493821636842        0.28397470846136
C            5.84373688873794        4.14995325542218       -1.77177995124902
H            6.09288999646632        3.09568855315331       -1.67611589153572
H            5.28415909503047        4.40709123639723       -2.66716335998536
H            6.77255733189813        4.71424140704329       -1.76364986388023
C            4.78053364697782        5.96690349043173       -0.26678717259636
O            3.72052967192108        6.54211287056912       -0.40855672765096
N            5.88739014163550        6.60075793477450        0.16267511687768
H            6.67975373561297        5.97973322967693        0.19445695505564
C            5.81825821548909        7.91267867910570        0.76162846649019
H            4.93247951514716        8.42071566398395        0.38317287925466
H            5.89873519591499        7.79231985506222        1.84305006917048
H            6.67070968764931        8.50638642258848        0.42156038944313
22
 energy: -32.951293629802 gnorm: 0.054449942456 xtb: 6.7.1 (edcfbbe)
H            1.24171070808733        3.06046608330598       -0.70486584671288
C            1.79277427290356        2.58812423277471        0.10479710362743
H            1.37974310003274        1.58176043762682        0.13237128861713
H            1.45462630417162        3.01878377350525        1.04480116374591
C            3.28962684712474        2.78648627208388        0.22493147838325
O            3.97727517700728        2.34479118827302        1.12264793348861
N            3.78025040976571        3.72780999845030       -0.61202261093352
H            3.05528149773143        4.18869956432591       -1.14763356958414
C            5.02675274980124        4.44189053648088       -0.47960722476756
H            5.62002819326023        4.02874891299229        0.34640497807386
C            5.80355380002052        4.33987167524355       -1.79947494953087
H            6.57542667786051        3.57918576585248       -1.70852355805299
H            5.05445177584911        4.05919088480164       -2.53501770386196
H            6.25093242392684        5.24806670554951       -2.19473282266651
C            4.73243820243805        5.92432425996473       -0.24304328593394
O            3.68807892160478        6.44402955072135       -0.58037543966377
N            5.77669472647213        6.55537675653261        0.32497229399783
H            6.53143379367489        5.93554459127263        0.57134370014064
C            5.93178365866607        7.93297401774706        0.72849876936212
H            5.11462964640343        8.54964402434173        0.35713432758086
H            6.10600048264692        8.04360889015392        1.79987354478799
H            6.77258906935399        8.40509350564201        0.21375791003270
22
 energy: -32.952669461356 gnorm: 0.057093622158 xtb: 6.7.1 (edcfbbe)
H            1.29079632058916        3.23429424319842       -0.66315231388198
C            1.77096827837750        2.67599008779542        0.13688722325308
H            1.66575930961330        1.60749509809083       -0.04023603310507
H            1.22307662716602        2.89542847491527        1.05071478250148
C            3.25153908425975        2.91093391248754        0.35381727942601
O            3.97933620506914        2.28125030161918        1.09385735995741
N            3.72358448475280        3.81508963936684       -0.53329560030098
H            2.98618336732567        4.16265562894358       -1.13355850890837
C            5.04951309540054        4.38344052147302       -0.52313627159613
H            5.58025050896887        3.82983379733302        0.26222678126935
C            5.80175783944627        4.46483849833005       -1.85856897394371
H            6.83163239447954        4.12553830507451       -1.77528231338722
H            5.30271978790753        3.84315257256320       -2.59709878007370
H            5.81716520995194        5.46414945511048       -2.28557575781038
C            4.80706583877678        5.85842670742226       -0.19782413105033
O            3.84435056937741        6.46784525646579       -0.61777767856789
N            5.78155873348017        6.39189964635864        0.56185380214482
H            6.51694098635402        5.83832317834348        0.97086208171187
C            5.86947624369400        7.83287000094021        0.58498790559299
H            4.93564339202978        8.23639426284776        0.19632551232340
H            6.01057199694926        8.30350716642304        1.55916862704938
H            6.62409901757302        8.24494557259671       -0.08995420334888
22
 energy: -32.953083543794 gnorm: 0.056952970661 xtb: 6.7.1 (edcfbbe)
H            1.09452676266131        3.24254832198489       -0.45100838433635
C            1.74267207155462        2.60940759567056        0.15013422194938
H            1.76814382230363        1.56844293536491       -0.16588305385667
H            1.42647822186129        2.66059692974891        1.18975935470428
C            3.21177105519495        2.96929645149023        0.23122388475033
O            3.96159172701652        2.45001462041984        1.03245101063347
N            3.72334665803304        3.76616340935117       -0.73344568559462
H            3.02674641426056        4.43182602855270       -1.04412166944589
C            5.02330515764749        4.34714904618146       -0.50154814684481
H            5.43078695208668        3.70491380593579        0.28993804039966
C            5.73136411137726        4.34888691258319       -1.86335870529305
H            6.79355881202998        4.57035218706209       -1.78988427219929
H            5.57642129928217        3.38167213918825       -2.33394025663621
H            5.24639895825194        5.13106184267625       -2.44146405735336
C            4.88887823143300        5.82382551270172       -0.12531778043148
O            3.96575948094634        6.44512581281452       -0.61153847675469