22
 energy: -32.972934288789 gnorm: 0.002305607982 xtb: 6.6.1 (8d0f1dd)
H            1.96574959237964        1.11695101685796        0.30968670064154
C            2.00908214833806        2.19190764497656        0.15607169862548
H            1.47763103603857        2.69031878604263        0.96418012901932
H            1.52944684634050        2.44654100508587       -0.78599751057154
C            3.45609723880350        2.63759223190821        0.15092511199745
O            4.38931165889681        1.90865292163496        0.41620225706446
N            3.62437036239420        3.93800326060660       -0.17248011398872
H            2.84560058451538        4.54905921670963       -0.37928503878661
C            4.91696623283461        4.57857634666386       -0.19018393299960
H            5.48591298024278        4.24274339134240        0.68586800025587
C            5.69398582091496        4.21139100312729       -1.46201878026821
H            5.15400995320416        4.55347942442790       -2.34197884080621
H            6.68558526539457        4.65584089549570       -1.45862134844904
H            5.79404069463442        3.12993507560995       -1.50573417919453
C            4.67942220493113        6.08880199385429       -0.13225878244999
O            3.58485870538917        6.57499041139159       -0.33263280732779
N            5.78176008417190        6.81023473133837        0.13853809187684
H            6.65871249516447        6.33934915056842        0.29374969448994
C            5.78555930972379        8.25342217986906        0.17558089135796
H            4.75613518352944        8.58877432499941        0.05676332061441
H            6.17693066094864        8.61013427309828        1.12991584414007
H            6.39283094120946        8.66130071439096       -0.63629040524099
22
 energy: -32.948652760550 gnorm: 0.080229477505 xtb: 6.6.1 (8d0f1dd)
H            2.06675389430586        1.24633622240684        0.67437364174344
C            2.01980519020525        2.28694115146995        0.36462503567885
H            1.60125704913796        2.97427812017909        1.09693541893786
H            1.41149263952719        2.56916072861081       -0.49134837610877
C            3.44936781236084        2.72080494444442        0.11840015137771
O            4.36529049929921        1.93250244341056        0.22920779127835
N            3.64495629207561        3.94920898430930       -0.40766463567316
H            2.85999735410654        4.58656897111149       -0.39179995809225
C            4.96310532035277        4.51825531077860       -0.26581704592799
H            5.34195730813920        4.14108083494470        0.69239051781299
C            5.86141084726790        4.13168876914861       -1.44893236488395
H            5.54388237710356        4.80172874359271       -2.24463974363541
H            6.87240738906014        4.44726387821266       -1.20579650671418
H            5.74490223669098        3.08302331747509       -1.71007494105995
C            4.67673895958340        6.01449283300687       -0.12499242883448
O            3.61012199457615        6.57249007434203       -0.28488464084227
N            5.75157973837113        6.75848245489852        0.19145930700260
H            6.66038967963374        6.42155533487411        0.46607543968135
C            5.65413772893308        8.19801680893399        0.14224013346262
H            4.59951078021987        8.45511007239449        0.05303382287169
H            5.85125131348170        8.53087166610454        1.16279103249887
H            6.33328204979323        8.56886857850273       -0.62945326233182
22
 energy: -32.952936660440 gnorm: 0.058414909176 xtb: 6.6.1 (8d0f1dd)
H            1.97517070643188        1.38958966147701        0.89467509731368
C            1.98657938150819        2.37477021794024        0.43609449926920
H            1.79871847533703        3.19672667969537        1.12383649478288
H            1.21536411643501        2.55224196925621       -0.30963560211385
C            3.43541749007280        2.63737601771163        0.08336183706978
O            4.29580378114047        1.78930335469357        0.19791267003957
N            3.68300697866633        3.87945536465628       -0.38558814640167
H            2.91606764759804        4.47992963554752       -0.65738732727137
C            4.97302665703121        4.51694429399063       -0.28114378801092
H            5.45765136598285        4.10032304498695        0.61077373916980
C            5.92703342458378        4.21551003571239       -1.44525589981454
H            5.78967154869510        4.92282142669233       -2.25997700365342
H            6.93329786002272        4.42046046556878       -1.08994766498032
H            5.78733515415040        3.20036782439120       -1.80780197216356
C            4.66407368938230        6.00991443990344       -0.15405164563743
O            3.54805222001576        6.44972516784171       -0.34289260957897
N            5.68655602463511        6.81470933928324        0.18621317797503
H            6.63904216221054        6.48667025321860        0.19168820371053
C            5.65821346761724        8.25784787699111        0.21313087519167
H            4.64692515290194        8.62948991974945        0.05353492631855
H            5.83960843588790        8.49915005351665        1.26195850447140
H            6.44950080242913        8.63238743377877       -0.44098167850653
22
 energy: -32.956756842992 gnorm: 0.061930487088 xtb: 6.6.1 (8d0f1dd)
H            1.82593722949822        1.49287274714421        0.79231637040771
C            1.99828554571180        2.50158401213562        0.42652312634610
H            1.66079497894510        3.25644389845394        1.13375709020246
H            1.40985094478010        2.52884538754964       -0.48747038001231
C            3.48542430717771        2.61652070996985        0.16628885762988
O            4.30416949299126        1.72871006287962        0.28487342186466
N            3.72274998529529        3.82713545505864       -0.38331483840549
H            2.99167635517231        4.52491158289386       -0.41909051502758
C            4.96404864786036        4.55445610608415       -0.27545458102351
H            5.53252457988271        4.23472050661260        0.60690334233027
C            5.90820630028633        4.34383518602573       -1.46724049484055
H            5.66414436720691        4.89389357604279       -2.37321935992914
H            6.94450689094236        4.53628079126023       -1.20292532242348
H            5.82318051219701        3.28643106480334       -1.70417107385084
C            4.63852454053282        6.04886424617995       -0.23881390224918
O            3.50005112306100        6.45234182047198       -0.36404336569755
N            5.75278763377913        6.75254736078192        0.02987347996635
H            6.58593452523091        6.24396108519822        0.27902344910382
C            5.63722261767426        8.16766743261096        0.29113310047518
H            4.61349577513178        8.39769938702132       -0.00103358635645
H            5.85433642326047        8.33404833073267        1.34770740521923
H            6.36734809919702        8.75053997638810       -0.27583703433922
22
 energy: -32.952326958243 gnorm: 0.075315315403 xtb: 6.6.1 (8d0f1dd)
H            1.73318177310582        1.35541416331386        0.58548926817469
C            1.94470821672965        2.38522110807489        0.31024159973273
H            1.48131182817482        3.02946437560922        1.05462564955447
H            1.42320097616437        2.36414062637715       -0.64368104207408
C            3.43155631291630        2.64164110489344        0.18357057315683
O            4.34499440556536        1.89658608625675        0.47190647495065
N            3.69846445391403        3.87272383862428       -0.30343159084748
H            3.01379915779691        4.56852560622021       -0.56750244897974
C            4.99616889402605        4.50298537143687       -0.28982577939508
H            5.55985310199968        4.13487358224649        0.57660660219919
C            5.75868460143793        4.23877889421966       -1.59554904160245
H            5.19026491233088        4.54262033633564       -2.47162414930140
H            6.76100449698871        4.64728907973055       -1.49915927632290
H            5.90427045497803        3.16196970508936       -1.62303878656032
C            4.79453576838364        6.01843457215742       -0.23218911531998
O            3.64212370291614        6.37860394576166       -0.36189162860947
N            5.80563765127324        6.84244503936224        0.09587312144793
H            6.74654651931714        6.50086211110253        0.20936790219776
C            5.63382601709325        8.24634227902287        0.38523449148608
H            4.65747811982886        8.52564582297742       -0.00850024422703
H            5.89345800002801        8.48828588938125        1.41733177411844
H            6.29466532609282        8.90969878859588       -0.17826201149554
22
 energy: -32.955440424444 gnorm: 0.064969428961 xtb: 6.6.1 (8d0f1dd)
H            1.90072315359502        1.20467005013858        0.32705598365815
C            2.02693442897077        2.26075035230568        0.10395921800740
H            1.41911530560561        2.81696699724363        0.81464351537693
H            1.62385759882707        2.36762430175629       -0.90027662257030
C            3.47200607230053        2.69228625179730        0.23834201810253
O            4.37147165513940        2.05312575496051        0.74336602487389
N            3.71406965801689        3.95052195505925       -0.18853489501486
H            2.98077452009027        4.58810946762136       -0.46853577045487
C            5.00298071344150        4.56814433145488       -0.38526419510468
H            5.56708323012232        4.28591739683024        0.51255958849578
C            5.62965623538471        4.11720296524189       -1.71194358123162
H            4.84676479576009        4.20436781478812       -2.46188453963714
H            6.51183546429308        4.72014459615507       -1.90952377468364
H            5.91863939617520        3.08527438080801       -1.53006151237027
C            4.74545502625325        6.07073101123283       -0.25689766834773
O            3.65573200283307        6.60362949127086       -0.31276559837651
N            5.80954507561265        6.73835686345912        0.22365737354644
H            6.71685681021535        6.32082222397739        0.35526166456071
C            5.69353487388961        8.16741095878633        0.39254401994014
H            4.70520219039357        8.39656017232420       -0.00366535088536
H            5.89872823221415        8.50622574781029        1.40953492284994
H            6.30749845857805        8.76901554335407       -0.28228884271658
22
 energy: -32.954749945299 gnorm: 0.055716065546 xtb: 6.6.1 (8d0f1dd)
H            2.14484795014579        1.06200237935729        0.24763620213093
C            2.12728150198754        2.12521546878641        0.02341222720405
H            1.31710535251552        2.59852383025436        0.57430877196769
H            1.92660584541585        2.40373995808840       -1.00835129603552
C            3.48641701249908        2.70543115639143        0.35297920385763
O            4.39630332562906        2.10259543443518        0.88336554978882
N            3.63427715905641        3.95474162466447       -0.13828084901779
H            2.88133033175972        4.42962142445915       -0.61807280094285
C            4.92890556382299        4.56935610053402       -0.30452713820527
H            5.39407440247812        4.04286389194992        0.53831042015690
C            5.50652648485396        4.19047599692650       -1.67527600116777
H            4.64755007578573        4.29914240617809       -2.33351554213271
H            6.20202009714919        4.95513753087082       -2.01053426977204
H            5.85840851289622        3.16219840329945       -1.65815317693727
C            4.69347226706883        6.07969219084080       -0.24112169579711
O            3.61823152649189        6.58113444600681       -0.49998714603107
N            5.75601001396626        6.78252736129396        0.19013387303463
H            6.59432616316824        6.28907969308223        0.45205922885166
C            5.89190559005216        8.20692602007846        0.38196078935838
H            4.95342577239466        8.72722520324925        0.19531372477068
H            6.16312394978497        8.37074628505328        1.42636195843225
H            6.63980910746095        8.64636176380079       -0.28273110659928
22
 energy: -32.947373764750 gnorm: 0.076735608843 xtb: 6.6.1 (8d0f1dd)
H            2.32189303341653        0.90666575884304        0.40385711671635
C            2.19694327840171        1.91004300316069        0.00557490962147
H            1.37409312555692        2.36306682912083        0.55473813262694
H            1.81287684172543        2.03688742305443       -1.00377441465261
C            3.48667413761662        2.64352856658839        0.30741468459704
O            4.27706320442643        2.05319850142317        1.01410361905096
N            3.57674733426886        3.92372417138007       -0.11325358406827
H            2.81577738630311        4.36111277515768       -0.61550454547411
C            4.81650230902111        4.64501952681870       -0.26879182154976
H            5.45596426347018        4.12016351305592        0.45201731778668
C            5.44491006932097        4.38947490517191       -1.64572650652752
H            4.77120112424959        4.62753000419471       -2.46571076493067
H            6.25775321534877        5.06962794339479       -1.88550681455267
H            5.69333841193001        3.33489644687929       -1.73299960531131
C            4.67412258035279        6.16826763256191       -0.26607137091638
O            3.69796250865803        6.80300547202941       -0.61077077871287
N            5.77457395415309        6.74137553140428        0.25306173181850
H            6.53530328867690        6.11505156291329        0.46253395082147
C            5.99362235256332        8.16680486339050        0.31898364682780
H            5.01466252504673        8.63188573876673        0.21114043839190
H            6.23559593604636        8.35860630446663        1.36580324006351
H            6.79390439449801        8.48574292248802       -0.35340457466209
22
 energy: -32.949522645464 gnorm: 0.077444236533 xtb: 6.6.1 (8d0f1dd)
H            2.22450236675780        0.89130887529190        0.45122341847212
C            2.21750533895412        1.92124018944650        0.10452528425338
H            1.31954915821262        2.35984085287161        0.53487092824524
H            1.99362494089373        1.99360527734321       -0.95708832344485
C            3.51010791591228        2.68452744296026        0.30222500122496
O            4.46626781545073        2.33442862536280        0.96237861303944
N            3.48126768930243        3.89663186118430       -0.29270935021416
H            2.74575500419606        4.30572080996476       -0.85334061968047
C            4.74142457614979        4.59892699851987       -0.27729176778397
H            5.35136311305897        4.03965643416302        0.44322379072197
C            5.40579882669469        4.45223781966718       -1.65324148711506
H            4.90548920002521        4.91310885628625       -2.50189708522331
H            6.43146559156901        4.80963956628988       -1.68623255221201
H            5.41950329811686        3.38603079189964       -1.86415312338864
C            4.67164680550281        6.12528718796344       -0.20035128409964
O            3.69429305346266        6.76356530954497       -0.53498390007668
N            5.75564357527379        6.67061694742544        0.37974486861510
H            6.42463172323061        6.01968107573369        0.75869975012852
C            6.00661093635417        8.08718645950885        0.25923392397155
H            5.01513920554919        8.49501752062275        0.06700917312743
H            6.25115503841970        8.44828809819014        1.25972083508189
H            6.83789986068579        8.28619871262982       -0.42167106378306
22
 energy: -32.951483803383 gnorm: 0.078591724774 xtb: 6.6.1 (8d0f1dd)
H            2.28175479955339        1.01100886468569        0.67434365060901
C            2.13746411513584        1.96788035543905        0.17978909434313
H            1.27801929136518        2.41054203275481        0.67908706141474
H            1.88882053910155        1.72776287121596       -0.85118256622492
C            3.46932017128304        2.68382909874987        0.25783327004118
O            4.39274974252101        2.29464972298081        0.94225344482998
N            3.59513380943616        3.88585444465601       -0.34489535118868
H            2.88724657574520        4.32957081170344       -0.91467737533481
C            4.83250600228009        4.62269321206790       -0.43109425583972
H            5.40683159404435        4.19358009909331        0.39954604095928
C            5.51187765891756        4.43769181420169       -1.79505069055653
H            5.09060357253019        5.07227589691676       -2.57142646976100
H            6.59071720030253        4.49755704866279       -1.67955985508105
H            5.30425697963333        3.40390607135152       -2.05896289366657
C            4.66807895329191        6.12857914648788       -0.21700198211241
O            3.59757145367568        6.66486043836989       -0.41952201810562
N            5.63759384901549        6.72219296305866        0.50175290565147
H            6.41885668484787        6.12103406114259        0.70937227180284
C            5.99621943657124        8.10911181545641        0.32281026235609
H            5.12488896010601        8.61756899995516       -0.08773476242472
H            6.27891357050563        8.55234812361676        1.27925988118776
H            6.87746851116712        8.18063924576254       -0.31950013748382
22
 energy: -32.949721388309 gnorm: 0.080770703916 xtb: 6.6.1 (8d0f1dd)
H            2.00171869040580        1.25595742050091        0.79827047869612
C            2.09113391411301        2.15948112892609        0.20106295027340
H            1.42076915974516        2.88523413514323        0.65689935303154
H            1.86446837521565        1.88596883899551       -0.82665116268419
C            3.52101568496813        2.64626209261880        0.30592573830869
O            4.44882754256101        2.21499943038875        0.95845252621411
N            3.64376223983210        3.80863108607068       -0.37068869120345
H            2.83041503505677        4.30692343191977       -0.70656220044276
C            4.88265045457374        4.54539638293296       -0.43220378896921
H            5.31361247262132        4.12930270528273        0.48708336490820
C            5.56705320847540        4.49327324229435       -1.80516566759511
H            5.05666023360602        5.26191047253159       -2.38103364821795
H            6.60772335081653        4.69209625067495       -1.56372881831149
H            5.42172821206500        3.48607249686127       -2.18712930045880
C            4.66385452108624        6.05047940221054       -0.26662234650469
O            3.59006106962866        6.58713861964116       -0.44982318447842
N            5.77176219928238        6.63854857127272        0.21882589526961
H            6.51684594895275        6.08302626059857        0.60756038988945
C            5.85467662090580        8.06687213522806        0.41168210703126
H            4.98629890396916        8.48267746676795       -0.09755138881717
H            5.97920811189496        8.32940065826619        1.46369965033307
H            6.69991224143788        8.47602675462618       -0.14728833332345
22
 energy: -32.955000492794 gnorm: 0.065890720326 xtb: 6.6.1 (8d0f1dd)
H            1.98758768733599        1.50415742514622        1.02357827366243
C            2.02588710078245        2.32598671389315        0.31355236926928
H            1.27149149126394        3.04333441402721        0.63008465379036
H            1.74047424326211        1.92626350706044       -0.65657308274060
C            3.48084071380730        2.74370320497619        0.34726733182137
O            4.30018412571977        2.02666959637089        0.88313364944285
N            3.73910068669860        3.83426604702578       -0.40635720764803
H            2.95886223504675        4.33857237746660       -0.80578560028269
C            5.02244135277591        4.49148749042582       -0.45683436094071
H            5.58498459374071        3.96566150472090        0.32483257980529
C            5.64057968249780        4.40929852518395       -1.85943846043127
H            5.07978887576443        4.99988803401803       -2.58030308592696
H            6.59189422648615        4.91478188253512       -1.71694669956641
H            5.68861401911174        3.35525243624506       -2.12049105860854
C            4.76114158747266        5.98912378129294       -0.28545244743802
O            3.64789274684002        6.46449742757392       -0.38186289632138
N            5.81174055351504        6.72775635981950        0.11405789536536
H            6.75390592786722        6.39507445184727        0.24257442617529
C            5.65206324444213        8.09899368287267        0.53641781304636
H            4.78857720042326        8.53122610326761        0.03257292124775
H            5.67571649338752        8.17149696460687        1.62515746552803
H            6.45914689362881        8.67983662542940        0.08307889204672
22
 energy: -32.949151965414 gnorm: 0.077076856717 xtb: 6.6.1 (8d0f1dd)
H            1.86331928004591        1.84501576354754        1.15998447965156
C            2.04641033040994        2.52122293528203        0.32918450757085
H            1.48974324658323        3.44097324167869        0.49673854062564
H            1.52165357884442        2.11863504659163       -0.53391221773417
C            3.53668169447430        2.78515661559898        0.28509007226334
O            4.36447502521019        2.05775255724124        0.79327829690053
N            3.81754932934948        3.83713368619546       -0.51393017408694
H            3.08706366124810        4.49821541147670       -0.74196898914335
C            5.09778642909031        4.50214761485488       -0.49975801821937
H            5.80869930973480        4.00379691991700        0.17121186775473
C            5.69113627878366        4.22896121398554       -1.88880571070990
H            5.04830094550030        4.37946601195656       -2.75311998147166
H            6.50960922823335        4.91394502710714       -2.09305042170331
H            5.87119448207883        3.15742237828378       -1.85960820366393
C            4.73464300074386        5.96817491811187       -0.25592475979222
O            3.58856126244245        6.36350320662945       -0.18656857946945
N            5.77218968120647        6.73011349471847        0.13380759368614
H            6.73250805253996        6.43724777548219        0.21679942664388
C            5.51505209656941        8.07668390224664        0.58636139691731
H            4.57045999460790        8.44671115577844        0.18997991394860
H            5.49452911178311        8.08592788306439        1.67753672123081
H            6.31154622696778        8.68820312724040        0.15517691668935
22
 energy: -32.953075208650 gnorm: 0.064319055188 xtb: 6.6.1 (8d0f1dd)
H            1.73903692793353        1.94303874266791        1.26375902530244
C            2.01228277409654        2.62734923430625        0.46497061812235
H            1.57335802009527        3.61922395414036        0.55112634372605
H            1.51656754608053        2.25653609979202       -0.42897939490714
C            3.50807814294932        2.80177531737845        0.30785354353811
O            4.43053836888144        2.12040329643766        0.70460663812143
N            3.79530910464329        3.77242978500624       -0.58618450091750
H            3.07658349346759        4.43104544501879       -0.85506920573396
C            5.05323374162560        4.47878596976582       -0.57443397698696
H            5.68044271032445        3.98658424527263        0.17942120199687
C            5.79542168278529        4.24468583645471       -1.89749962798687
H            5.11340272811932        4.21424757296204       -2.74417065133280
H            6.52661016801225        5.03216671783473       -2.05891213942975
H            6.16432938021064        3.22594382200055       -1.81066195495647
C            4.72742140894699        5.94097243466040       -0.26391620061759
O            3.56637446889508        6.29201466621682       -0.20614363320196
N            5.75700560160005        6.71669577862793        0.11969140902739
H            6.69698632500046        6.36375317761913        0.20177202727769
C            5.49522555733017        8.05343938698357        0.59798465881147
H            4.45950077094447        8.33924223848001        0.41942479004613
H            5.53742888343247        8.01850962534076        1.68801633986948
H            6.27014848353006        8.70001808108141        0.17880783856497
22
 energy: -32.948463413793 gnorm: 0.083385439721 xtb: 6.6.1 (8d0f1dd)
H            1.99572427639705        1.73509600424130        1.30302230989246
C            1.96048188710948        2.53429508326047        0.56746411623302
H            1.46053342489076        3.45160466857816        0.87158229788839
H            1.37796100588718        2.15043869298104       -0.26662597915370
C            3.42234750920996        2.80684133064589        0.28254051780629
O            4.27721062047762        2.13383864208575        0.82002553635806
N            3.81587002687071        3.68609563223735       -0.66404685227604
H            3.08691515622984        4.29014609422464       -1.01955761774216
C            5.02600983039855        4.47054697310236       -0.62343564516895
H            5.50682744288890        4.07333983269816        0.27933350499586
C            5.88442519183297        4.45362095304308       -1.89582908978408
H            5.15681011247589        4.56989492248424       -2.69581959697372
H            6.67578161373835        5.19476364774489       -1.82317063890016
H            6.38252286086560        3.48774321513010       -1.91699194712322
C            4.72055136577486        5.94115777677308       -0.33263819940007
O            3.57068432718986        6.32717194430295       -0.39092315898625
N            5.75529962899608        6.67647803840798        0.11182239067942
H            6.64577334930103        6.20595585511960        0.13494977757259
C            5.58713351715486        8.02401125010777        0.60177247513637
H            4.51596740383565        8.22083669419218        0.58929747016305
H            5.76874774288618        8.02404018107390        1.67796323066475
H            6.28297361333015        8.72461076874274        0.13353575037331
22
 energy: -32.953184698328 gnorm: 0.067682594035 xtb: 6.6.1 (8d0f1dd)
H            1.80229378428916        1.65032176388103        1.06208137441259
C            2.05877686814999        2.49803076293706        0.43230923746583
H            1.65018022409516        3.42894079775866        0.82005721981141
H            1.58482863296680        2.31940721802116       -0.52990139204823
C            3.54605688407429        2.76445009968743        0.33467257915971
O            4.44529585970715        2.26253949461996        0.97659838476262
N            3.71543512033279        3.69444898214266       -0.62989408637586
H            2.89609411755158        4.16499145296180       -0.99032465353713
C            4.94336505309962        4.45105323463354       -0.59540309562171
H            5.42547813955909        4.01426092906626        0.28818657391977
C            5.76855265381350        4.47832418412397       -1.88941632807402
H            5.09947199643879        4.85903783911723       -2.65773680075038
H            6.72309956497478        4.98204152869884       -1.76321897563436
H            6.14879470355594        3.47711173581232       -2.07504655677395
C            4.65722545212253        5.93253247665685       -0.34260357451546
O            3.54608171884442        6.39896240876131       -0.49227334371234
N            5.68250939179028        6.58859666264988        0.22951331814986
H            6.43946916432369        5.97021945561421        0.47342107305060
C            5.68334477697822        7.98771800648192        0.58537211196235
H            4.63407629038711        8.27934376690602        0.60218847056822
H            6.05684538823021        8.18134202974175        1.59243582042791
H            6.25930665061167        8.63340947737341       -0.08218253873310
22
 energy: -32.955602264846 gnorm: 0.061857443564 xtb: 6.6.1 (8d0f1dd)
H            2.09001651388866        1.40633419125815        0.86137797439312
C            2.07731114862290        2.34991603366627        0.32239844665127
H            1.41108006968140        2.98926399031770        0.89795343941391
H            1.64065647510759        2.16976201105296       -0.65701965528424
C            3.50764169512087        2.84529247820650        0.35804554096887
O            4.31027067661791        2.34037712705104        1.11531756718729
N            3.77007919064626        3.80651590862277       -0.55362974576388
H            3.08736646710689        4.27951991807372       -1.13052715876306
C            5.03772332009031        4.49477295476334       -0.58247596484725
H            5.71670298994250        3.97971645549562        0.10864967678304
C            5.65628430309025        4.38014175572298       -1.98261541938273
H            5.11652109743368        4.99261295348808       -2.70126893336540
H            6.70470070245292        4.62936912859239       -2.12234911853272
H            5.61169458596345        3.32410815988818       -2.23613811237719
C            4.71673295308103        5.95850429686794       -0.27422298085817
O            3.62884646118909        6.42912552447091       -0.53807315777591